    1C
    1UModel: beam     Date: 10-Mar-1998                                 
    1UUSER                                                              
    1UDATE              31.july.2022                                    
    1UTIME              18:20:23                                        
    1UHOST                                                              
    1UPGM               CalculiX                                        
    1UVERSION           Version 2.20                             
    1UCOMPILETIME       Fri Jul 29 13:52:46 CEST 2022                    
    1UDIR                                                               
    1UDBN                                                               
    1UMAT    1EL                                                        
    2C                            81                                     1
 -1         1 0.00000E+00 0.00000E+00 0.00000E+00
 -1         2 1.00000E+00 0.00000E+00 0.00000E+00
 -1         3 1.00000E+00 1.50000E+00 0.00000E+00
 -1         4 0.00000E+00 1.50000E+00 0.00000E+00
 -1         5 0.00000E+00 0.00000E+00 8.00000E+00
 -1         6 1.00000E+00 0.00000E+00 8.00000E+00
 -1         7 1.00000E+00 1.50000E+00 8.00000E+00
 -1         8 0.00000E+00 1.50000E+00 8.00000E+00
 -1        10 5.00000E-01 0.00000E+00 0.00000E+00
 -1        13 1.00000E+00 7.50000E-01 0.00000E+00
 -1        16 5.00000E-01 1.50000E+00 0.00000E+00
 -1        19 0.00000E+00 7.50000E-01 0.00000E+00
 -1        22 5.00000E-01 0.00000E+00 8.00000E+00
 -1        25 1.00000E+00 7.50000E-01 8.00000E+00
 -1        28 5.00000E-01 1.50000E+00 8.00000E+00
 -1        31 0.00000E+00 7.50000E-01 8.00000E+00
 -1        34 1.00000E+00 0.00000E+00 1.00000E+00
 -1        36 1.00000E+00 0.00000E+00 2.00000E+00
 -1        38 1.00000E+00 0.00000E+00 3.00000E+00
 -1        40 1.00000E+00 0.00000E+00 4.00000E+00
 -1        42 1.00000E+00 0.00000E+00 5.00000E+00
 -1        44 1.00000E+00 0.00000E+00 6.00000E+00
 -1        46 1.00000E+00 0.00000E+00 7.00000E+00
 -1        49 0.00000E+00 0.00000E+00 7.00000E+00
 -1        51 0.00000E+00 0.00000E+00 6.00000E+00
 -1        53 0.00000E+00 0.00000E+00 5.00000E+00
 -1        55 0.00000E+00 0.00000E+00 4.00000E+00
 -1        57 0.00000E+00 0.00000E+00 3.00000E+00
 -1        59 0.00000E+00 0.00000E+00 2.00000E+00
 -1        61 0.00000E+00 0.00000E+00 1.00000E+00
 -1        64 1.00000E+00 1.50000E+00 1.00000E+00
 -1        66 1.00000E+00 1.50000E+00 2.00000E+00
 -1        68 1.00000E+00 1.50000E+00 3.00000E+00
 -1        70 1.00000E+00 1.50000E+00 4.00000E+00
 -1        72 1.00000E+00 1.50000E+00 5.00000E+00
 -1        74 1.00000E+00 1.50000E+00 6.00000E+00
 -1        76 1.00000E+00 1.50000E+00 7.00000E+00
 -1        79 0.00000E+00 1.50000E+00 1.00000E+00
 -1        81 0.00000E+00 1.50000E+00 2.00000E+00
 -1        83 0.00000E+00 1.50000E+00 3.00000E+00
 -1        85 0.00000E+00 1.50000E+00 4.00000E+00
 -1        87 0.00000E+00 1.50000E+00 5.00000E+00
 -1        89 0.00000E+00 1.50000E+00 6.00000E+00
 -1        91 0.00000E+00 1.50000E+00 7.00000E+00
 -1        95 5.00000E-01 7.50000E-01 0.00000E+00
 -1       100 5.00000E-01 7.50000E-01 8.00000E+00
 -1       105 5.00000E-01 0.00000E+00 1.00000E+00
 -1       109 5.00000E-01 0.00000E+00 2.00000E+00
 -1       113 5.00000E-01 0.00000E+00 3.00000E+00
 -1       117 5.00000E-01 0.00000E+00 4.00000E+00
 -1       121 5.00000E-01 0.00000E+00 5.00000E+00
 -1       125 5.00000E-01 0.00000E+00 6.00000E+00
 -1       129 5.00000E-01 0.00000E+00 7.00000E+00
 -1       134 1.00000E+00 7.50000E-01 1.00000E+00
 -1       138 1.00000E+00 7.50000E-01 2.00000E+00
 -1       142 1.00000E+00 7.50000E-01 3.00000E+00
 -1       146 1.00000E+00 7.50000E-01 4.00000E+00
 -1       150 1.00000E+00 7.50000E-01 5.00000E+00
 -1       154 1.00000E+00 7.50000E-01 6.00000E+00
 -1       158 1.00000E+00 7.50000E-01 7.00000E+00
 -1       163 5.00000E-01 1.50000E+00 1.00000E+00
 -1       167 5.00000E-01 1.50000E+00 2.00000E+00
 -1       171 5.00000E-01 1.50000E+00 3.00000E+00
 -1       175 5.00000E-01 1.50000E+00 4.00000E+00
 -1       179 5.00000E-01 1.50000E+00 5.00000E+00
 -1       183 5.00000E-01 1.50000E+00 6.00000E+00
 -1       187 5.00000E-01 1.50000E+00 7.00000E+00
 -1       192 0.00000E+00 7.50000E-01 1.00000E+00
 -1       196 0.00000E+00 7.50000E-01 2.00000E+00
 -1       200 0.00000E+00 7.50000E-01 3.00000E+00
 -1       204 0.00000E+00 7.50000E-01 4.00000E+00
 -1       208 0.00000E+00 7.50000E-01 5.00000E+00
 -1       212 0.00000E+00 7.50000E-01 6.00000E+00
 -1       216 0.00000E+00 7.50000E-01 7.00000E+00
 -1       222 5.00000E-01 7.50000E-01 1.00000E+00
 -1       228 5.00000E-01 7.50000E-01 2.00000E+00
 -1       234 5.00000E-01 7.50000E-01 3.00000E+00
 -1       240 5.00000E-01 7.50000E-01 4.00000E+00
 -1       246 5.00000E-01 7.50000E-01 5.00000E+00
 -1       252 5.00000E-01 7.50000E-01 6.00000E+00
 -1       258 5.00000E-01 7.50000E-01 7.00000E+00
 -3
    3C                            32                                     1
 -1         1    1    0    1
 -2         1        10        95        19        61       105       222       192
 -1         2    1    0    1
 -2        10         2        13        95       105        34       134       222
 -1         3    1    0    1
 -2        19        95        16         4       192       222       163        79
 -1         4    1    0    1
 -2        95        13         3        16       222       134        64       163
 -1         5    1    0    1
 -2        61       105       222       192        59       109       228       196
 -1         6    1    0    1
 -2       105        34       134       222       109        36       138       228
 -1         7    1    0    1
 -2       192       222       163        79       196       228       167        81
 -1         8    1    0    1
 -2       222       134        64       163       228       138        66       167
 -1         9    1    0    1
 -2        59       109       228       196        57       113       234       200
 -1        10    1    0    1
 -2       109        36       138       228       113        38       142       234
 -1        11    1    0    1
 -2       196       228       167        81       200       234       171        83
 -1        12    1    0    1
 -2       228       138        66       167       234       142        68       171
 -1        13    1    0    1
 -2        57       113       234       200        55       117       240       204
 -1        14    1    0    1
 -2       113        38       142       234       117        40       146       240
 -1        15    1    0    1
 -2       200       234       171        83       204       240       175        85
 -1        16    1    0    1
 -2       234       142        68       171       240       146        70       175
 -1        17    1    0    1
 -2        55       117       240       204        53       121       246       208
 -1        18    1    0    1
 -2       117        40       146       240       121        42       150       246
 -1        19    1    0    1
 -2       204       240       175        85       208       246       179        87
 -1        20    1    0    1
 -2       240       146        70       175       246       150        72       179
 -1        21    1    0    1
 -2        53       121       246       208        51       125       252       212
 -1        22    1    0    1
 -2       121        42       150       246       125        44       154       252
 -1        23    1    0    1
 -2       208       246       179        87       212       252       183        89
 -1        24    1    0    1
 -2       246       150        72       179       252       154        74       183
 -1        25    1    0    1
 -2        51       125       252       212        49       129       258       216
 -1        26    1    0    1
 -2       125        44       154       252       129        46       158       258
 -1        27    1    0    1
 -2       212       252       183        89       216       258       187        91
 -1        28    1    0    1
 -2       252       154        74       183       258       158        76       187
 -1        29    1    0    1
 -2        49       129       258       216         5        22       100        31
 -1        30    1    0    1
 -2       129        46       158       258        22         6        25       100
 -1        31    1    0    1
 -2       216       258       187        91        31       100        28         8
 -1        32    1    0    1
 -2       258       158        76       187       100        25         7        28
 -3
    1PSTEP                         1           1           1          
  100CL  101 6.36931E-08           1                     1    1           1
 -4  ENER        1    1
 -5  ENER        1    1    0    0
 -1       100 3.19147E-04
 -3
    1PSTEP                         2           2           1          
  100CL  102 1.27386E-07           1                     1    2           1
 -4  ENER        1    1
 -5  ENER        1    1    0    0
 -1       100 2.85810E-03
 -3
    1PSTEP                         3           3           1          
  100CL  103 1.91079E-07           1                     1    3           1
 -4  ENER        1    1
 -5  ENER        1    1    0    0
 -1       100 5.96096E-03
 -3
    1PSTEP                         4           4           1          
  100CL  104 2.54772E-07           1                     1    4           1
 -4  ENER        1    1
 -5  ENER        1    1    0    0
 -1       100 7.48258E-03
 -3
    1PSTEP                         5           5           1          
  100CL  105 3.18465E-07           1                     1    5           1
 -4  ENER        1    1
 -5  ENER        1    1    0    0
 -1       100 1.17127E-02
 -3
    1PSTEP                         6           6           1          
  100CL  106 3.82158E-07           1                     1    6           1
 -4  ENER        1    1
 -5  ENER        1    1    0    0
 -1       100 1.80178E-02
 -3
    1PSTEP                         7           7           1          
  100CL  107 4.45852E-07           1                     1    7           1
 -4  ENER        1    1
 -5  ENER        1    1    0    0
 -1       100 2.18887E-02
 -3
    1PSTEP                         8           8           1          
  100CL  108 5.09545E-07           1                     1    8           1
 -4  ENER        1    1
 -5  ENER        1    1    0    0
 -1       100 2.54031E-02
 -3
    1PSTEP                         9           9           1          
  100CL  109 5.73238E-07           1                     1    9           1
 -4  ENER        1    1
 -5  ENER        1    1    0    0
 -1       100 3.25446E-02
 -3
    1PSTEP                        10          10           1          
  100CL  110 6.36931E-07           1                     1   10           1
 -4  ENER        1    1
 -5  ENER        1    1    0    0
 -1       100 4.46511E-02
 -3
    1PSTEP                        11          11           1          
  100CL  111 7.00624E-07           1                     1   11           1
 -4  ENER        1    1
 -5  ENER        1    1    0    0
 -1       100 5.87249E-02
 -3
    1PSTEP                        12          12           1          
  100CL  112 7.64317E-07           1                     1   12           1
 -4  ENER        1    1
 -5  ENER        1    1    0    0
 -1       100 6.88220E-02
 -3
    1PSTEP                        13          13           1          
  100CL  113 8.28010E-07           1                     1   13           1
 -4  ENER        1    1
 -5  ENER        1    1    0    0
 -1       100 7.56541E-02
 -3
    1PSTEP                        14          14           1          
  100CL  114 8.91703E-07           1                     1   14           1
 -4  ENER        1    1
 -5  ENER        1    1    0    0
 -1       100 8.51246E-02
 -3
    1PSTEP                        15          15           1          
  100CL  115 9.55396E-07           1                     1   15           1
 -4  ENER        1    1
 -5  ENER        1    1    0    0
 -1       100 9.95556E-02
 -3
    1PSTEP                        16          16           1          
  100CL  116 1.01909E-06           1                     1   16           1
 -4  ENER        1    1
 -5  ENER        1    1    0    0
 -1       100 1.16906E-01
 -3
    1PSTEP                        17          17           1          
  100CL  117 1.08278E-06           1                     1   17           1
 -4  ENER        1    1
 -5  ENER        1    1    0    0
 -1       100 1.32288E-01
 -3
    1PSTEP                        18          18           1          
  100CL  118 1.14648E-06           1                     1   18           1
 -4  ENER        1    1
 -5  ENER        1    1    0    0
 -1       100 1.43428E-01
 -3
    1PSTEP                        19          19           1          
  100CL  119 1.21017E-06           1                     1   19           1
 -4  ENER        1    1
 -5  ENER        1    1    0    0
 -1       100 1.54253E-01
 -3
    1PSTEP                        20          20           1          
  100CL  120 1.27386E-06           1                     1   20           1
 -4  ENER        1    1
 -5  ENER        1    1    0    0
 -1       100 1.69038E-01
 -3
    1PSTEP                        21          21           1          
  100CL  121 1.33755E-06           1                     1   21           1
 -4  ENER        1    1
 -5  ENER        1    1    0    0
 -1       100 1.87875E-01
 -3
    1PSTEP                        22          22           1          
  100CL  122 1.40125E-06           1                     1   22           1
 -4  ENER        1    1
 -5  ENER        1    1    0    0
 -1       100 2.06301E-01
 -3
    1PSTEP                        23          23           1          
  100CL  123 1.46494E-06           1                     1   23           1
 -4  ENER        1    1
 -5  ENER        1    1    0    0
 -1       100 2.19998E-01
 -3
    1PSTEP                        24          24           1          
  100CL  124 1.52863E-06           1                     1   24           1
 -4  ENER        1    1
 -5  ENER        1    1    0    0
 -1       100 2.31193E-01
 -3
    1PSTEP                        25          25           1          
  100CL  125 1.59233E-06           1                     1   25           1
 -4  ENER        1    1
 -5  ENER        1    1    0    0
 -1       100 2.44663E-01
 -3
    1PSTEP                        26          26           1          
  100CL  126 1.65602E-06           1                     1   26           1
 -4  ENER        1    1
 -5  ENER        1    1    0    0
 -1       100 2.61656E-01
 -3
    1PSTEP                        27          27           1          
  100CL  127 1.71971E-06           1                     1   27           1
 -4  ENER        1    1
 -5  ENER        1    1    0    0
 -1       100 2.79802E-01
 -3
    1PSTEP                        28          28           1          
  100CL  128 1.78341E-06           1                     1   28           1
 -4  ENER        1    1
 -5  ENER        1    1    0    0
 -1       100 2.95233E-01
 -3
    1PSTEP                        29          29           1          
  100CL  129 1.84710E-06           1                     1   29           1
 -4  ENER        1    1
 -5  ENER        1    1    0    0
 -1       100 3.07665E-01
 -3
    1PSTEP                        30          30           1          
  100CL  130 1.91079E-06           1                     1   30           1
 -4  ENER        1    1
 -5  ENER        1    1    0    0
 -1       100 3.20615E-01
 -3
    1PSTEP                        31          31           1          
  100CL  131 1.97449E-06           1                     1   31           1
 -4  ENER        1    1
 -5  ENER        1    1    0    0
 -1       100 3.36039E-01
 -3
    1PSTEP                        32          32           1          
  100CL  132 2.03818E-06           1                     1   32           1
 -4  ENER        1    1
 -5  ENER        1    1    0    0
 -1       100 3.53325E-01
 -3
    1PSTEP                        33          33           1          
  100CL  133 2.10187E-06           1                     1   33           1
 -4  ENER        1    1
 -5  ENER        1    1    0    0
 -1       100 3.69996E-01
 -3
    1PSTEP                        34          34           1          
  100CL  134 2.16556E-06           1                     1   34           1
 -4  ENER        1    1
 -5  ENER        1    1    0    0
 -1       100 3.84131E-01
 -3
    1PSTEP                        35          35           1          
  100CL  135 2.22926E-06           1                     1   35           1
 -4  ENER        1    1
 -5  ENER        1    1    0    0
 -1       100 3.97442E-01
 -3
    1PSTEP                        36          36           1          
  100CL  136 2.29295E-06           1                     1   36           1
 -4  ENER        1    1
 -5  ENER        1    1    0    0
 -1       100 4.12465E-01
 -3
    1PSTEP                        37          37           1          
  100CL  137 2.35664E-06           1                     1   37           1
 -4  ENER        1    1
 -5  ENER        1    1    0    0
 -1       100 4.29597E-01
 -3
    1PSTEP                        38          38           1          
  100CL  138 2.42034E-06           1                     1   38           1
 -4  ENER        1    1
 -5  ENER        1    1    0    0
 -1       100 4.47106E-01
 -3
    1PSTEP                        39          39           1          
  100CL  139 2.48403E-06           1                     1   39           1
 -4  ENER        1    1
 -5  ENER        1    1    0    0
 -1       100 4.62601E-01
 -3
    1PSTEP                        40          40           1          
  100CL  140 2.54772E-06           1                     1   40           1
 -4  ENER        1    1
 -5  ENER        1    1    0    0
 -1       100 4.76298E-01
 -3
    1PSTEP                        41          41           1          
  100CL  141 2.61142E-06           1                     1   41           1
 -4  ENER        1    1
 -5  ENER        1    1    0    0
 -1       100 4.90413E-01
 -3
    1PSTEP                        42          42           1          
  100CL  142 2.67511E-06           1                     1   42           1
 -4  ENER        1    1
 -5  ENER        1    1    0    0
 -1       100 5.06171E-01
 -3
    1PSTEP                        43          43           1          
  100CL  143 2.73880E-06           1                     1   43           1
 -4  ENER        1    1
 -5  ENER        1    1    0    0
 -1       100 5.22841E-01
 -3
    1PSTEP                        44          44           1          
  100CL  144 2.80250E-06           1                     1   44           1
 -4  ENER        1    1
 -5  ENER        1    1    0    0
 -1       100 5.37875E-01
 -3
    1PSTEP                        45          45           1          
  100CL  145 2.86619E-06           1                     1   45           1
 -4  ENER        1    1
 -5  ENER        1    1    0    0
 -1       100 5.50340E-01
 -3
    1PSTEP                        46          46           1          
  100CL  146 2.92988E-06           1                     1   46           1
 -4  ENER        1    1
 -5  ENER        1    1    0    0
 -1       100 5.62420E-01
 -3
    1PSTEP                        47          47           1          
  100CL  147 2.99357E-06           1                     1   47           1
 -4  ENER        1    1
 -5  ENER        1    1    0    0
 -1       100 5.75720E-01
 -3
    1PSTEP                        48          48           1          
  100CL  148 3.05727E-06           1                     1   48           1
 -4  ENER        1    1
 -5  ENER        1    1    0    0
 -1       100 5.89990E-01
 -3
    1PSTEP                        49          49           1          
  100CL  149 3.12096E-06           1                     1   49           1
 -4  ENER        1    1
 -5  ENER        1    1    0    0
 -1       100 6.03939E-01
 -3
    1PSTEP                        50          50           1          
  100CL  150 3.18465E-06           1                     1   50           1
 -4  ENER        1    1
 -5  ENER        1    1    0    0
 -1       100 6.16542E-01
 -3
    1PSTEP                        51          51           1          
  100CL  151 3.24835E-06           1                     1   51           1
 -4  ENER        1    1
 -5  ENER        1    1    0    0
 -1       100 6.28722E-01
 -3
    1PSTEP                        52          52           1          
  100CL  152 3.31204E-06           1                     1   52           1
 -4  ENER        1    1
 -5  ENER        1    1    0    0
 -1       100 6.41645E-01
 -3
    1PSTEP                        53          53           1          
  100CL  153 3.37573E-06           1                     1   53           1
 -4  ENER        1    1
 -5  ENER        1    1    0    0
 -1       100 6.55392E-01
 -3
    1PSTEP                        54          54           1          
  100CL  154 3.43943E-06           1                     1   54           1
 -4  ENER        1    1
 -5  ENER        1    1    0    0
 -1       100 6.69524E-01
 -3
    1PSTEP                        55          55           1          
  100CL  155 3.50312E-06           1                     1   55           1
 -4  ENER        1    1
 -5  ENER        1    1    0    0
 -1       100 6.82943E-01
 -3
    1PSTEP                        56          56           1          
  100CL  156 3.56681E-06           1                     1   56           1
 -4  ENER        1    1
 -5  ENER        1    1    0    0
 -1       100 6.95314E-01
 -3
    1PSTEP                        57          57           1          
  100CL  157 3.63051E-06           1                     1   57           1
 -4  ENER        1    1
 -5  ENER        1    1    0    0
 -1       100 7.07613E-01
 -3
    1PSTEP                        58          58           1          
  100CL  158 3.69420E-06           1                     1   58           1
 -4  ENER        1    1
 -5  ENER        1    1    0    0
 -1       100 7.20519E-01
 -3
    1PSTEP                        59          59           1          
  100CL  159 3.75789E-06           1                     1   59           1
 -4  ENER        1    1
 -5  ENER        1    1    0    0
 -1       100 7.33799E-01
 -3
    1PSTEP                        60          60           1          
  100CL  160 3.82158E-06           1                     1   60           1
 -4  ENER        1    1
 -5  ENER        1    1    0    0
 -1       100 7.46255E-01
 -3
    1PSTEP                        61          61           1          
  100CL  161 3.88528E-06           1                     1   61           1
 -4  ENER        1    1
 -5  ENER        1    1    0    0
 -1       100 7.57131E-01
 -3
    1PSTEP                        62          62           1          
  100CL  162 3.94897E-06           1                     1   62           1
 -4  ENER        1    1
 -5  ENER        1    1    0    0
 -1       100 7.67318E-01
 -3
    1PSTEP                        63          63           1          
  100CL  163 4.01266E-06           1                     1   63           1
 -4  ENER        1    1
 -5  ENER        1    1    0    0
 -1       100 7.77735E-01
 -3
    1PSTEP                        64          64           1          
  100CL  164 4.07636E-06           1                     1   64           1
 -4  ENER        1    1
 -5  ENER        1    1    0    0
 -1       100 7.88386E-01
 -3
    1PSTEP                        65          65           1          
  100CL  165 4.14005E-06           1                     1   65           1
 -4  ENER        1    1
 -5  ENER        1    1    0    0
 -1       100 7.98555E-01
 -3
    1PSTEP                        66          66           1          
  100CL  166 4.20374E-06           1                     1   66           1
 -4  ENER        1    1
 -5  ENER        1    1    0    0
 -1       100 8.07517E-01
 -3
    1PSTEP                        67          67           1          
  100CL  167 4.26744E-06           1                     1   67           1
 -4  ENER        1    1
 -5  ENER        1    1    0    0
 -1       100 8.15839E-01
 -3
    1PSTEP                        68          68           1          
  100CL  168 4.33113E-06           1                     1   68           1
 -4  ENER        1    1
 -5  ENER        1    1    0    0
 -1       100 8.24478E-01
 -3
    1PSTEP                        69          69           1          
  100CL  169 4.39482E-06           1                     1   69           1
 -4  ENER        1    1
 -5  ENER        1    1    0    0
 -1       100 8.33545E-01
 -3
    1PSTEP                        70          70           1          
  100CL  170 4.45852E-06           1                     1   70           1
 -4  ENER        1    1
 -5  ENER        1    1    0    0
 -1       100 8.42731E-01
 -3
    1PSTEP                        71          71           1          
  100CL  171 4.52221E-06           1                     1   71           1
 -4  ENER        1    1
 -5  ENER        1    1    0    0
 -1       100 8.51608E-01
 -3
    1PSTEP                        72          72           1          
  100CL  172 4.58590E-06           1                     1   72           1
 -4  ENER        1    1
 -5  ENER        1    1    0    0
 -1       100 8.60096E-01
 -3
    1PSTEP                        73          73           1          
  100CL  173 4.64959E-06           1                     1   73           1
 -4  ENER        1    1
 -5  ENER        1    1    0    0
 -1       100 8.68468E-01
 -3
    1PSTEP                        74          74           1          
  100CL  174 4.71329E-06           1                     1   74           1
 -4  ENER        1    1
 -5  ENER        1    1    0    0
 -1       100 8.76893E-01
 -3
    1PSTEP                        75          75           1          
  100CL  175 4.77698E-06           1                     1   75           1
 -4  ENER        1    1
 -5  ENER        1    1    0    0
 -1       100 8.85360E-01
 -3
    1PSTEP                        76          76           1          
  100CL  176 4.84067E-06           1                     1   76           1
 -4  ENER        1    1
 -5  ENER        1    1    0    0
 -1       100 8.93343E-01
 -3
    1PSTEP                        77          77           1          
  100CL  177 4.90437E-06           1                     1   77           1
 -4  ENER        1    1
 -5  ENER        1    1    0    0
 -1       100 9.00435E-01
 -3
    1PSTEP                        78          78           1          
  100CL  178 4.96806E-06           1                     1   78           1
 -4  ENER        1    1
 -5  ENER        1    1    0    0
 -1       100 9.07006E-01
 -3
    1PSTEP                        79          79           1          
  100CL  179 5.00000E-06           1                     1   79           1
 -4  ENER        1    1
 -5  ENER        1    1    0    0
 -1       100 9.10228E-01
 -3
 9999
