
 displacements (vx,vy,vz) for set N1 and time  0.2500000E-07

        23 -3.846154E-08  0.000000E+00 -4.807692E-05

 displacements (vx,vy,vz) for set N1 and time  0.5000000E-07

        23 -1.028634E-07  2.135044E-22 -1.377620E-04

 displacements (vx,vy,vz) for set N1 and time  0.7500000E-07

        23 -1.249620E-07  2.562053E-21 -2.569905E-04

 displacements (vx,vy,vz) for set N1 and time  0.1000000E-06

        23 -2.695851E-08 -1.494531E-21 -3.897258E-04

 displacements (vx,vy,vz) for set N1 and time  0.1250000E-06

        23  2.225768E-07 -3.202566E-20 -5.181167E-04

 displacements (vx,vy,vz) for set N1 and time  0.1500000E-06

        23  5.930025E-07 -6.170278E-20 -6.248987E-04

 displacements (vx,vy,vz) for set N1 and time  0.1750000E-06

        23  1.030081E-06  1.964241E-20 -6.957168E-04

 displacements (vx,vy,vz) for set N1 and time  0.2000000E-06

        23  1.513972E-06  1.539367E-19 -7.210580E-04

 displacements (vx,vy,vz) for set N1 and time  0.2250000E-06

        23  2.084484E-06  2.079533E-19 -6.975344E-04

 displacements (vx,vy,vz) for set N1 and time  0.2500000E-06

        23  2.810836E-06  1.406994E-19 -6.283405E-04

 displacements (vx,vy,vz) for set N1 and time  0.2750000E-06

        23  3.732743E-06  3.416071E-20 -5.228269E-04

 displacements (vx,vy,vz) for set N1 and time  0.3000000E-06

        23  4.825234E-06 -3.138515E-20 -3.952418E-04

 displacements (vx,vy,vz) for set N1 and time  0.3250000E-06

        23  6.018930E-06 -1.054712E-19 -2.628119E-04

 displacements (vx,vy,vz) for set N1 and time  0.3500000E-06

        23  7.257677E-06 -1.761412E-19 -1.434211E-04

 displacements (vx,vy,vz) for set N1 and time  0.3750000E-06

        23  8.542093E-06 -1.434750E-19 -5.319985E-05

 displacements (vx,vy,vz) for set N1 and time  0.4000000E-06

        23  9.920230E-06  1.355753E-20 -4.352528E-06

 displacements (vx,vy,vz) for set N1 and time  0.4250000E-06

        23  1.158223E-05  1.161464E-19 -2.869463E-06

 displacements (vx,vy,vz) for set N1 and time  0.4500000E-06

        23  1.358494E-05  3.840411E-20 -4.899370E-05

 displacements (vx,vy,vz) for set N1 and time  0.4750000E-06

        23  1.587324E-05 -1.856955E-19 -1.369371E-04

 displacements (vx,vy,vz) for set N1 and time  0.5000000E-06

        23  1.834500E-05 -3.754208E-19 -2.552673E-04

 displacements (vx,vy,vz) for set N1 and time  0.5250000E-06

        23  2.089712E-05 -3.627440E-19 -3.882874E-04

 displacements (vx,vy,vz) for set N1 and time  0.5500000E-06

        23  2.347991E-05 -1.228985E-19 -5.180820E-04

 displacements (vx,vy,vz) for set N1 and time  0.5750000E-06

        23  2.611569E-05  1.519618E-19 -6.269862E-04

 displacements (vx,vy,vz) for set N1 and time  0.6000000E-06

        23  2.886194E-05  2.474783E-19 -7.001161E-04

 displacements (vx,vy,vz) for set N1 and time  0.6250000E-06

        23  3.174327E-05  1.824395E-19 -7.275429E-04

 displacements (vx,vy,vz) for set N1 and time  0.6500000E-06

        23  3.470319E-05  1.037365E-19 -7.057303E-04

 displacements (vx,vy,vz) for set N1 and time  0.6750000E-06

        23  3.761350E-05  5.390987E-21 -6.379904E-04

 displacements (vx,vy,vz) for set N1 and time  0.7000000E-06

        23  4.033466E-05 -1.202831E-19 -5.339073E-04

 displacements (vx,vy,vz) for set N1 and time  0.7250000E-06

        23  4.278196E-05 -1.887379E-19 -4.078693E-04

 displacements (vx,vy,vz) for set N1 and time  0.7500000E-06

        23  4.495006E-05 -6.418477E-20 -2.769961E-04

 displacements (vx,vy,vz) for set N1 and time  0.7750000E-06

        23  4.688289E-05  2.602085E-19 -1.588086E-04

 displacements (vx,vy,vz) for set N1 and time  0.8000000E-06

        23  4.861819E-05  5.566327E-19 -6.896644E-05

 displacements (vx,vy,vz) for set N1 and time  0.8250000E-06

        23  5.015097E-05  5.876709E-19 -1.932889E-05

 displacements (vx,vy,vz) for set N1 and time  0.8500000E-06

        23  5.218693E-05  3.499071E-19 -1.460184E-05

 displacements (vx,vy,vz) for set N1 and time  0.8750000E-06

        23  5.463574E-05  4.542307E-20 -5.556003E-05

 displacements (vx,vy,vz) for set N1 and time  0.9000000E-06

        23  5.723721E-05 -3.422743E-20 -1.380279E-04

 displacements (vx,vy,vz) for set N1 and time  0.9250000E-06

        23  5.984056E-05  1.773421E-19 -2.522303E-04

 displacements (vx,vy,vz) for set N1 and time  0.9500000E-06

        23  6.243444E-05  4.469849E-19 -3.834889E-04

 displacements (vx,vy,vz) for set N1 and time  0.9750000E-06

        23  6.508724E-05  5.086743E-19 -5.139008E-04

 displacements (vx,vy,vz) for set N1 and time  0.1000000E-05

        23  6.787045E-05  3.449031E-19 -6.249236E-04

 displacements (vx,vy,vz) for set N1 and time  0.1025000E-05

        23  7.082351E-05  1.324528E-19 -7.004280E-04

 displacements (vx,vy,vz) for set N1 and time  0.1050000E-05

        23  7.395751E-05  9.336816E-20 -7.295283E-04

 displacements (vx,vy,vz) for set N1 and time  0.1075000E-05

        23  7.725422E-05  2.361893E-19 -7.084750E-04

 displacements (vx,vy,vz) for set N1 and time  0.1100000E-05

        23  8.063532E-05  3.602220E-19 -6.411388E-04

 displacements (vx,vy,vz) for set N1 and time  0.1125000E-05

        23  8.393193E-05  3.561521E-19 -5.380323E-04

 displacements (vx,vy,vz) for set N1 and time  0.1150000E-05

        23  8.691045E-05  3.187755E-19 -4.142286E-04

 displacements (vx,vy,vz) for set N1 and time  0.1175000E-05

        23  8.937450E-05  3.928481E-19 -2.867910E-04

 displacements (vx,vy,vz) for set N1 and time  0.1200000E-05

        23  9.128600E-05  5.651329E-19 -1.723329E-04

 displacements (vx,vy,vz) for set N1 and time  0.1225000E-05

        23  9.280651E-05  6.842550E-19 -8.510680E-05

 displacements (vx,vy,vz) for set N1 and time  0.1250000E-05

        23  9.420200E-05  6.480793E-19 -3.571503E-05

 displacements (vx,vy,vz) for set N1 and time  0.1275000E-05

        23  9.639350E-05  4.884981E-19 -2.854899E-05

 displacements (vx,vy,vz) for set N1 and time  0.1300000E-05

        23  9.930752E-05  4.348151E-19 -6.478319E-05

 displacements (vx,vy,vz) for set N1 and time  0.1325000E-05

        23  1.024554E-04  6.252744E-19 -1.415994E-04

 displacements (vx,vy,vz) for set N1 and time  0.1350000E-05

        23  1.053993E-04  9.312930E-19 -2.508843E-04

 displacements (vx,vy,vz) for set N1 and time  0.1375000E-05

        23  1.079820E-04  1.099815E-18 -3.792502E-04

 displacements (vx,vy,vz) for set N1 and time  0.1400000E-05

        23  1.103568E-04  1.022379E-18 -5.092261E-04

 displacements (vx,vy,vz) for set N1 and time  0.1425000E-05

        23  1.128314E-04  8.296515E-19 -6.217635E-04

 displacements (vx,vy,vz) for set N1 and time  0.1450000E-05

        23  1.156547E-04  6.762086E-19 -6.996440E-04

 displacements (vx,vy,vz) for set N1 and time  0.1475000E-05

        23  1.188874E-04  6.500142E-19 -7.309021E-04

 displacements (vx,vy,vz) for set N1 and time  0.1500000E-05

        23  1.224038E-04  7.117837E-19 -7.112465E-04

 displacements (vx,vy,vz) for set N1 and time  0.1525000E-05

        23  1.259724E-04  7.923416E-19 -6.447441E-04

 displacements (vx,vy,vz) for set N1 and time  0.1550000E-05

        23  1.293391E-04  7.695634E-19 -5.426215E-04

 displacements (vx,vy,vz) for set N1 and time  0.1575000E-05

        23  1.322782E-04  6.810257E-19 -4.206709E-04

 displacements (vx,vy,vz) for set N1 and time  0.1600000E-05

        23  1.346346E-04  5.638785E-19 -2.961540E-04

 displacements (vx,vy,vz) for set N1 and time  0.1625000E-05

        23  1.363809E-04  5.090746E-19 -1.851083E-04

 displacements (vx,vy,vz) for set N1 and time  0.1650000E-05

        23  1.376614E-04  5.014552E-19 -1.006044E-04

 displacements (vx,vy,vz) for set N1 and time  0.1675000E-05

        23  1.387592E-04  5.529765E-19 -5.197757E-05

 displacements (vx,vy,vz) for set N1 and time  0.1700000E-05

        23  1.407040E-04  6.023627E-19 -4.291173E-05

 displacements (vx,vy,vz) for set N1 and time  0.1725000E-05

        23  1.434850E-04  6.797180E-19 -7.489274E-05

 displacements (vx,vy,vz) for set N1 and time  0.1750000E-05

        23  1.470819E-04  8.131450E-19 -1.426797E-04

 displacements (vx,vy,vz) for set N1 and time  0.1775000E-05

        23  1.502775E-04  9.395262E-19 -2.425933E-04

 displacements (vx,vy,vz) for set N1 and time  0.1800000E-05

        23  1.518431E-04  9.937430E-19 -3.667579E-04

 displacements (vx,vy,vz) for set N1 and time  0.1825000E-05

        23  1.512907E-04  9.348024E-19 -5.013803E-04

 displacements (vx,vy,vz) for set N1 and time  0.1850000E-05

        23  1.491336E-04  9.356431E-19 -6.271522E-04

 displacements (vx,vy,vz) for set N1 and time  0.1875000E-05

        23  1.465131E-04  1.068857E-18 -7.224542E-04

 displacements (vx,vy,vz) for set N1 and time  0.1900000E-05

        23  1.444881E-04  1.181574E-18 -7.686260E-04

 displacements (vx,vy,vz) for set N1 and time  0.1925000E-05

        23  1.434761E-04  1.133735E-18 -7.554054E-04

 displacements (vx,vy,vz) for set N1 and time  0.1950000E-05

        23  1.431650E-04  9.116773E-19 -6.843310E-04

 displacements (vx,vy,vz) for set N1 and time  0.1975000E-05

        23  1.428450E-04  6.862032E-19 -5.686346E-04

 displacements (vx,vy,vz) for set N1 and time  0.2000000E-05

        23  1.418600E-04  6.930220E-19 -4.295880E-04

 displacements (vx,vy,vz) for set N1 and time  0.2025000E-05

        23  1.398865E-04  9.005350E-19 -2.907393E-04

 displacements (vx,vy,vz) for set N1 and time  0.2050000E-05

        23  1.369718E-04  1.035456E-18 -1.722754E-04

 displacements (vx,vy,vz) for set N1 and time  0.2075000E-05

        23  1.334491E-04  8.919681E-19 -8.751401E-05

 displacements (vx,vy,vz) for set N1 and time  0.2100000E-05

        23  1.297638E-04  5.637985E-19 -4.233053E-05

 displacements (vx,vy,vz) for set N1 and time  0.2125000E-05

        23  1.265167E-04  2.418205E-19 -3.780248E-05

 displacements (vx,vy,vz) for set N1 and time  0.2150000E-05

        23  1.242063E-04  1.722047E-19 -7.165637E-05

 displacements (vx,vy,vz) for set N1 and time  0.2175000E-05

        23  1.241958E-04  4.165655E-19 -1.381657E-04

 displacements (vx,vy,vz) for set N1 and time  0.2200000E-05

        23  1.268464E-04  7.693866E-19 -2.321265E-04

 displacements (vx,vy,vz) for set N1 and time  0.2225000E-05

        23  1.307249E-04  1.006488E-18 -3.470705E-04

 displacements (vx,vy,vz) for set N1 and time  0.2250000E-05

        23  1.335162E-04  1.067662E-18 -4.730325E-04

 displacements (vx,vy,vz) for set N1 and time  0.2275000E-05

        23  1.337630E-04  1.053683E-18 -5.951339E-04

 displacements (vx,vy,vz) for set N1 and time  0.2300000E-05

        23  1.320443E-04  1.160974E-18 -6.945608E-04

 displacements (vx,vy,vz) for set N1 and time  0.2325000E-05

        23  1.306000E-04  1.363915E-18 -7.523214E-04

 displacements (vx,vy,vz) for set N1 and time  0.2350000E-05

        23  1.316613E-04  1.477184E-18 -7.546598E-04

 displacements (vx,vy,vz) for set N1 and time  0.2375000E-05

        23  1.358078E-04  1.466620E-18 -6.979585E-04

 displacements (vx,vy,vz) for set N1 and time  0.2400000E-05

        23  1.416334E-04  1.422750E-18 -5.909349E-04

 displacements (vx,vy,vz) for set N1 and time  0.2425000E-05

        23  1.469132E-04  1.449763E-18 -4.529730E-04

 displacements (vx,vy,vz) for set N1 and time  0.2450000E-05

        23  1.502591E-04  1.533996E-18 -3.090643E-04

 displacements (vx,vy,vz) for set N1 and time  0.2475000E-05

        23  1.519312E-04  1.465786E-18 -1.832714E-04

 displacements (vx,vy,vz) for set N1 and time  0.2500000E-05

        23  1.532764E-04  1.157811E-18 -9.319025E-05

 displacements (vx,vy,vz) for set N1 and time  0.2525000E-05

        23  1.564576E-04  7.736149E-19 -4.479298E-05

 displacements (vx,vy,vz) for set N1 and time  0.2550000E-05

        23  1.619501E-04  5.230725E-19 -3.713458E-05

 displacements (vx,vy,vz) for set N1 and time  0.2575000E-05

        23  1.680111E-04  5.558504E-19 -6.873968E-05

 displacements (vx,vy,vz) for set N1 and time  0.2600000E-05

        23  1.741888E-04  6.801150E-19 -1.343258E-04

 displacements (vx,vy,vz) for set N1 and time  0.2625000E-05

        23  1.808785E-04  5.243152E-19 -2.285662E-04

 displacements (vx,vy,vz) for set N1 and time  0.2650000E-05

        23  1.887295E-04  5.530432E-20 -3.445509E-04

 displacements (vx,vy,vz) for set N1 and time  0.2675000E-05

        23  1.976055E-04 -3.710056E-19 -4.719423E-04

 displacements (vx,vy,vz) for set N1 and time  0.2700000E-05

        23  2.062757E-04 -4.514384E-19 -5.958522E-04

 displacements (vx,vy,vz) for set N1 and time  0.2725000E-05

        23  2.132721E-04 -3.337391E-19 -6.978520E-04

 displacements (vx,vy,vz) for set N1 and time  0.2750000E-05

        23  2.182089E-04 -1.998135E-19 -7.594811E-04

 displacements (vx,vy,vz) for set N1 and time  0.2775000E-05

        23  2.223168E-04 -2.119248E-19 -7.672581E-04

 displacements (vx,vy,vz) for set N1 and time  0.2800000E-05

        23  2.275604E-04 -2.718612E-19 -7.172473E-04

 displacements (vx,vy,vz) for set N1 and time  0.2825000E-05

        23  2.349593E-04 -1.601400E-19 -6.171778E-04

 displacements (vx,vy,vz) for set N1 and time  0.2850000E-05

        23  2.435205E-04  7.626778E-20 -4.850275E-04

 displacements (vx,vy,vz) for set N1 and time  0.2875000E-05

        23  2.507672E-04  2.486242E-19 -3.444492E-04

 displacements (vx,vy,vz) for set N1 and time  0.2900000E-05

        23  2.545242E-04  2.527392E-19 -2.187360E-04

 displacements (vx,vy,vz) for set N1 and time  0.2925000E-05

        23  2.546311E-04  1.746550E-19 -1.255254E-04

 displacements (vx,vy,vz) for set N1 and time  0.2950000E-05

        23  2.549088E-04  1.906194E-19 -6.798731E-05

 displacements (vx,vy,vz) for set N1 and time  0.2975000E-05

        23  2.576701E-04  4.117616E-19 -4.738787E-05

 displacements (vx,vy,vz) for set N1 and time  0.3000000E-05

        23  2.630371E-04  6.984497E-19 -6.682769E-05

 displacements (vx,vy,vz) for set N1 and time  0.3025000E-05

        23  2.704942E-04  8.378197E-19 -1.233969E-04

 displacements (vx,vy,vz) for set N1 and time  0.3050000E-05

        23  2.781737E-04  7.607229E-19 -2.141093E-04

 displacements (vx,vy,vz) for set N1 and time  0.3075000E-05

        23  2.846008E-04  5.980109E-19 -3.318612E-04

 displacements (vx,vy,vz) for set N1 and time  0.3100000E-05

        23  2.896233E-04  5.621205E-19 -4.639251E-04

 displacements (vx,vy,vz) for set N1 and time  0.3125000E-05

        23  2.942705E-04  6.013836E-19 -5.922087E-04

 displacements (vx,vy,vz) for set N1 and time  0.3150000E-05

        23  2.997613E-04  5.953838E-19 -6.959747E-04

 displacements (vx,vy,vz) for set N1 and time  0.3175000E-05

        23  3.065338E-04  5.398509E-19 -7.565094E-04

 displacements (vx,vy,vz) for set N1 and time  0.3200000E-05

        23  3.140537E-04  5.543476E-19 -7.621651E-04

 displacements (vx,vy,vz) for set N1 and time  0.3225000E-05

        23  3.214149E-04  5.705522E-19 -7.118233E-04

 displacements (vx,vy,vz) for set N1 and time  0.3250000E-05

        23  3.280781E-04  4.757346E-19 -6.153575E-04

 displacements (vx,vy,vz) for set N1 and time  0.3275000E-05

        23  3.340702E-04  2.605004E-19 -4.908732E-04

 displacements (vx,vy,vz) for set N1 and time  0.3300000E-05

        23  3.395540E-04  7.814596E-20 -3.598146E-04

 displacements (vx,vy,vz) for set N1 and time  0.3325000E-05

        23  3.443106E-04  7.641624E-20 -2.418299E-04

 displacements (vx,vy,vz) for set N1 and time  0.3350000E-05

        23  3.477412E-04  1.763146E-19 -1.512178E-04

 displacements (vx,vy,vz) for set N1 and time  0.3375000E-05

        23  3.507779E-04  1.185934E-19 -9.263863E-05

 displacements (vx,vy,vz) for set N1 and time  0.3400000E-05

        23  3.541858E-04 -1.455867E-19 -6.695912E-05

 displacements (vx,vy,vz) for set N1 and time  0.3425000E-05

        23  3.581801E-04 -4.750991E-19 -7.838794E-05

 displacements (vx,vy,vz) for set N1 and time  0.3450000E-05

        23  3.639975E-04 -6.331674E-19 -1.250527E-04

 displacements (vx,vy,vz) for set N1 and time  0.3475000E-05

        23  3.718867E-04 -4.906215E-19 -2.067772E-04

 displacements (vx,vy,vz) for set N1 and time  0.3500000E-05

        23  3.808273E-04 -1.919838E-19 -3.188681E-04

 displacements (vx,vy,vz) for set N1 and time  0.3525000E-05

        23  3.889686E-04  6.160437E-20 -4.496904E-04

 displacements (vx,vy,vz) for set N1 and time  0.3550000E-05

        23  3.949826E-04  1.512212E-19 -5.806241E-04

 displacements (vx,vy,vz) for set N1 and time  0.3575000E-05

        23  3.992199E-04  6.149428E-20 -6.892168E-04

 displacements (vx,vy,vz) for set N1 and time  0.3600000E-05

        23  4.035935E-04 -1.542236E-20 -7.547783E-04

 displacements (vx,vy,vz) for set N1 and time  0.3625000E-05

        23  4.101366E-04  1.697527E-20 -7.643680E-04

 displacements (vx,vy,vz) for set N1 and time  0.3650000E-05

        23  4.193299E-04  1.475849E-19 -7.167536E-04

 displacements (vx,vy,vz) for set N1 and time  0.3675000E-05

        23  4.295639E-04  2.781946E-19 -6.226896E-04

 displacements (vx,vy,vz) for set N1 and time  0.3700000E-05

        23  4.382106E-04  4.788337E-19 -5.014202E-04

 displacements (vx,vy,vz) for set N1 and time  0.3725000E-05

        23  4.434757E-04  7.247358E-19 -3.749035E-04

 displacements (vx,vy,vz) for set N1 and time  0.3750000E-05

        23  4.455723E-04  8.989003E-19 -2.621389E-04

 displacements (vx,vy,vz) for set N1 and time  0.3775000E-05

        23  4.463324E-04  8.494390E-19 -1.757246E-04

 displacements (vx,vy,vz) for set N1 and time  0.3800000E-05

        23  4.486661E-04  6.458275E-19 -1.187852E-04

 displacements (vx,vy,vz) for set N1 and time  0.3825000E-05

        23  4.537716E-04  5.056269E-19 -9.046174E-05

 displacements (vx,vy,vz) for set N1 and time  0.3850000E-05

        23  4.601270E-04  6.826938E-19 -9.497978E-05

 displacements (vx,vy,vz) for set N1 and time  0.3875000E-05

        23  4.668146E-04  1.138170E-18 -1.320158E-04

 displacements (vx,vy,vz) for set N1 and time  0.3900000E-05

        23  4.741587E-04  1.570135E-18 -1.955015E-04

 displacements (vx,vy,vz) for set N1 and time  0.3925000E-05

        23  4.811869E-04  1.586833E-18 -2.893834E-04

 displacements (vx,vy,vz) for set N1 and time  0.3950000E-05

        23  4.868688E-04  1.257227E-18 -4.124206E-04

 displacements (vx,vy,vz) for set N1 and time  0.3975000E-05

        23  4.902736E-04  9.421400E-19 -5.527037E-04

 displacements (vx,vy,vz) for set N1 and time  0.4000000E-05

        23  4.910639E-04  9.430390E-19 -6.869974E-04

 displacements (vx,vy,vz) for set N1 and time  0.4025000E-05

        23  4.900261E-04  1.131822E-18 -7.861347E-04

 displacements (vx,vy,vz) for set N1 and time  0.4050000E-05

        23  4.890209E-04  1.251430E-18 -8.245925E-04

 displacements (vx,vy,vz) for set N1 and time  0.4075000E-05

        23  4.900445E-04  1.220730E-18 -7.901146E-04

 displacements (vx,vy,vz) for set N1 and time  0.4100000E-05

        23  4.938601E-04  1.090964E-18 -6.889727E-04

 displacements (vx,vy,vz) for set N1 and time  0.4125000E-05

        23  4.991988E-04  1.087593E-18 -5.443376E-04

 displacements (vx,vy,vz) for set N1 and time  0.4150000E-05

        23  5.032973E-04  1.168770E-18 -3.883744E-04

 displacements (vx,vy,vz) for set N1 and time  0.4175000E-05

        23  5.035889E-04  1.197852E-18 -2.515358E-04

 displacements (vx,vy,vz) for set N1 and time  0.4200000E-05

        23  4.990137E-04  9.886623E-19 -1.534093E-04

 displacements (vx,vy,vz) for set N1 and time  0.4225000E-05

        23  4.934978E-04  6.531851E-19 -9.224856E-05

 displacements (vx,vy,vz) for set N1 and time  0.4250000E-05

        23  4.910568E-04  4.911336E-19 -6.405453E-05

 displacements (vx,vy,vz) for set N1 and time  0.4275000E-05

        23  4.926039E-04  7.046363E-19 -6.884635E-05

 displacements (vx,vy,vz) for set N1 and time  0.4300000E-05

        23  4.987263E-04  1.063109E-18 -1.053425E-04

 displacements (vx,vy,vz) for set N1 and time  0.4325000E-05

        23  5.092727E-04  1.132536E-18 -1.714512E-04

 displacements (vx,vy,vz) for set N1 and time  0.4350000E-05

        23  5.207097E-04  7.145326E-19 -2.673576E-04

 displacements (vx,vy,vz) for set N1 and time  0.4375000E-05

        23  5.294273E-04  1.586054E-19 -3.894968E-04

 displacements (vx,vy,vz) for set N1 and time  0.4400000E-05

        23  5.343072E-04 -4.162336E-20 -5.264541E-04

 displacements (vx,vy,vz) for set N1 and time  0.4425000E-05

        23  5.373148E-04  1.475799E-19 -6.581076E-04

 displacements (vx,vy,vz) for set N1 and time  0.4450000E-05

        23  5.417352E-04  3.735060E-19 -7.593329E-04

 displacements (vx,vy,vz) for set N1 and time  0.4475000E-05

        23  5.495760E-04  3.295624E-19 -8.072667E-04

 displacements (vx,vy,vz) for set N1 and time  0.4500000E-05

        23  5.602267E-04  1.575162E-19 -7.891937E-04

 displacements (vx,vy,vz) for set N1 and time  0.4525000E-05

        23  5.712769E-04  6.062358E-20 -7.075726E-04

 displacements (vx,vy,vz) for set N1 and time  0.4550000E-05

        23  5.805578E-04  1.037898E-19 -5.798511E-04

 displacements (vx,vy,vz) for set N1 and time  0.4575000E-05

        23  5.875670E-04  1.597664E-19 -4.330213E-04

 displacements (vx,vy,vz) for set N1 and time  0.4600000E-05

        23  5.931973E-04  1.320492E-19 -2.952008E-04

 displacements (vx,vy,vz) for set N1 and time  0.4625000E-05

        23  5.983108E-04  7.145226E-20 -1.877809E-04

 displacements (vx,vy,vz) for set N1 and time  0.4650000E-05

        23  6.050329E-04  5.088745E-20 -1.130720E-04

 displacements (vx,vy,vz) for set N1 and time  0.4675000E-05

        23  6.137389E-04  2.329383E-19 -6.791938E-05

 displacements (vx,vy,vz) for set N1 and time  0.4700000E-05

        23  6.224164E-04  6.671380E-19 -5.859504E-05

 displacements (vx,vy,vz) for set N1 and time  0.4725000E-05

        23  6.315612E-04  9.604246E-19 -8.775363E-05

 displacements (vx,vy,vz) for set N1 and time  0.4750000E-05

        23  6.436740E-04  9.704443E-19 -1.506183E-04

 displacements (vx,vy,vz) for set N1 and time  0.4775000E-05

        23  6.596554E-04  8.313312E-19 -2.474826E-04

 displacements (vx,vy,vz) for set N1 and time  0.4800000E-05

        23  6.779581E-04  9.172517E-19 -3.735486E-04

 displacements (vx,vy,vz) for set N1 and time  0.4825000E-05

        23  6.952577E-04  1.428046E-18 -5.156857E-04

 displacements (vx,vy,vz) for set N1 and time  0.4850000E-05

        23  7.089751E-04  1.995206E-18 -6.525452E-04

 displacements (vx,vy,vz) for set N1 and time  0.4875000E-05

        23  7.194981E-04  2.107174E-18 -7.588422E-04

 displacements (vx,vy,vz) for set N1 and time  0.4900000E-05

        23  7.300235E-04  1.759680E-18 -8.125138E-04

 displacements (vx,vy,vz) for set N1 and time  0.4925000E-05

        23  7.439353E-04  1.284084E-18 -8.018934E-04

 displacements (vx,vy,vz) for set N1 and time  0.4950000E-05

        23  7.618089E-04  1.106540E-18 -7.298136E-04

 displacements (vx,vy,vz) for set N1 and time  0.4975000E-05

        23  7.805815E-04  1.392728E-18 -6.128038E-04

 displacements (vx,vy,vz) for set N1 and time  0.5000000E-05

        23  7.956568E-04  1.727594E-18 -4.756973E-04
